 VARIABLES="x","time","delN2","delN2_mid","delN2_pyc"
 ZONE I=         128 ,J=         101 , F=POINT
