 VARIABLES ="x","time","w","w_mid","w_pyc"
 ZONE I=         256 ,J=         101 , F=POINT
